LAMMPS data file via write_data, version 8 Apr 2021, timestep = 2

8019 atoms
6 atom types
8602 bonds
5 bond types
11626 angles
6 angle types
4851 dihedrals
3 dihedral types

0.754774196501519 52.56162580349459 xlo xhi
0.754774196501519 52.56162580349459 ylo yhi
0.754774196501519 52.56162580349459 zlo zhi

Masses

1 14.027
2 15.035
3 15.9994
4 28.086
5 15.9994
6 1.008

Atoms # full

546 4 1 0.25 5.572393487271315 2.340120691870736 4.690951190017864 0 1 0
2455 17 1 0.25 3.02669986444985 2.199050314100329 1.8326560120115003 0 0 0
547 4 1 0.25 5.145872693334525 1.2700434941881058 5.691999789511591 0 1 0
2454 17 1 0.25 3.970372072013796 1.23132427186308 1.0384815034031964 0 0 0
2161 15 1 0.25 1.2685138512648029 4.2430923631254505 5.313986709678203 0 1 1
2456 17 3 -0.5 1.6090570164757643 2.0903798039692343 1.6682140313500304 0 0 0
2457 17 1 0.25 1.0091797733498753 0.8055781333505294 1.9133848973076524 0 0 0
3987 27 1 0.25 5.343066207515094 6.044751539199937 3.7658313451201444 0 0 0
3985 27 1 0.25 5.556434352397002 6.016513905571989 6.133054170501374 0 0 0
3986 27 3 -0.5 4.751024928853587 6.3794497869298645 5.012132628508821 0 0 0
2162 15 3 -0.5 1.1510361701585752 3.321895457165027 6.378257146288262 0 1 1
543 4 1 0.25 8.443603199999492 3.87250078054002 5.254292718895095 0 1 0
544 4 1 0.25 8.022617933756333 2.4044668523585435 5.004597026831444 0 1 0
542 4 3 -0.5 8.844780759223712 4.633352706977814 4.152047674450346 0 1 0
545 4 3 -0.5 6.903797932705004 2.263176622062292 4.090754085623736 0 1 0
2472 17 1 0.25 7.832213940154478 0.945441841222233 0.9863132677603172 0 0 0
2470 17 1 0.25 7.454886524527735 3.148484387180523 0.8952161922144988 0 0 0
3084 21 1 0.25 11.047149241424988 2.385878707466667 0.9815357139959502 0 1 0
3083 21 3 -0.5 12.017325137644203 2.317356475998094 1.9756639837343042 0 1 0
3082 21 1 0.25 11.44656101763032 2.746043102812389 3.2151009337401684 0 1 0
541 4 1 0.25 9.276733140172638 5.820292946711753 4.674960125681454 0 1 0
3081 21 1 0.25 12.308797892120536 2.5298370860594357 4.534757968080906 0 1 0
494 4 3 -0.5 15.394376185001557 3.5505317878263147 3.018152608632027 0 1 0
493 4 1 0.25 15.221805182457965 4.981481675327533 3.148198117140037 0 1 0
491 4 3 -0.5 15.250992558631674 5.34185522185134 5.70552713824416 0 1 0
492 4 1 0.25 15.875025847902688 5.593247945471804 4.4302787909422445 0 1 0
496 4 1 0.25 14.945523218102442 1.4917524456870903 1.6985696463803046 0 1 0
495 4 1 0.25 15.098987875356263 3.0169420753577825 1.685999682787842 0 1 0
490 4 1 0.25 15.169371351507227 3.956623590202237 6.184787502115047 0 1 0
489 4 1 0.25 16.455134549880853 3.089138327985439 6.209703143364539 0 1 0
3079 21 1 0.25 13.028459937743085 0.9255870781271003 6.121790722915548 0 1 0
3080 21 3 -0.5 12.517945254516185 1.143774393891651 4.799875294909774 0 1 0
3724 25 1 0.25 19.59904720597145 4.7238830689504505 3.806967809244397 -1 0 0
3723 25 1 0.25 19.158450128591518 4.097289642743273 2.4436022427840123 -1 0 0
3722 25 3 -0.5 19.795467715394544 2.8890932353141023 2.133764243108623 -1 0 0
3725 25 3 -0.5 20.860642096831082 5.340702212745874 3.838754428520457 -1 0 0
3721 25 1 0.25 18.93855129163203 2.182308298779097 1.2527603042747124 -1 0 0
3720 25 1 0.25 19.468590053616726 0.8175477768987605 0.9288918720049792 -1 0 0
4698 32 1 0.25 23.670756999057023 4.08774276172595 3.029838376493613 0 1 1
4699 32 1 0.25 23.004608229607165 2.7551910098169734 2.547134552402531 0 1 1
4700 32 3 -0.5 23.784388688644903 1.8291173930706028 1.8744532038877701 0 1 1
4697 32 3 -0.5 24.69249432223512 4.034843281599185 4.042140338413255 0 1 1
4696 32 1 0.25 26.01355776061522 3.4717840900624797 3.748044936924643 0 1 1
4695 32 1 0.25 26.889814270255304 4.146591487741314 2.6454264531571954 0 1 1
15 1 1 0.25 29.17900196440214 5.4870066026468285 5.599663708241333 -1 1 0
4694 32 3 -0.5 27.258404688681917 5.483657923232903 2.7983933084765624 0 1 1
875 6 3 -0.5 28.851718093780946 0.9978868512778345 4.151922953569901 -1 1 1
4693 32 1 0.25 27.7466474984859 6.076278626517562 1.6074130682312422 0 1 1
876 6 1 0.25 29.555535315268045 1.3469897361618548 5.356137372620086 -1 1 1
874 6 1 0.25 29.677069754445963 1.04596521271777 3.006639685207679 -1 1 1
14 1 3 -0.5 30.562699459034786 5.131309409026164 5.667876065614636 -1 1 0
13 1 1 0.25 31.034743538037137 4.969241183201953 4.335118798291153 -1 1 0
2534 17 3 -0.5 33.75194691824558 1.8883746359683786 4.929369129534425 -1 0 0
2536 17 1 0.25 33.843016897748605 1.098198364616519 2.620051189621588 -1 0 0
10 1 1 0.25 34.743105291947046 5.422769966844771 4.466771350348214 -1 1 0
2537 17 3 -0.5 32.69227060828344 1.7045981299982604 2.037697245011899 -1 0 0
12 1 1 0.25 32.563977109353246 4.680244594677901 4.2221800637212565 -1 1 0
11 1 3 -0.5 33.40904571958012 5.786028422002041 4.683691967881017 -1 1 0
2533 17 1 0.25 33.47032392025942 1.5863863553022615 6.3009069719013855 -1 0 0
431 3 3 -0.5 37.69930209869115 2.940729707679688 3.1317421831926957 -1 0 1
430 3 1 0.25 36.82356301277566 2.568248862193583 2.055329381168901 -1 0 1
432 3 1 0.25 37.27314090879698 2.339899553991284 4.329471180633429 -1 0 1
433 3 1 0.25 38.290242549999434 2.663980935157432 5.413939063891746 -1 0 1
434 3 3 -0.5 38.35360378296595 4.051403844216113 5.90562194426313 -1 0 1
2520 17 1 0.25 40.19023749444821 1.4124283917134544 1.1339885235190177 -1 0 0
429 3 1 0.25 37.09310772028834 3.4505766408077303 0.7970508091398496 -1 0 1
428 3 3 -0.5 36.77764761146621 4.813683972936769 1.0863902278911772 -1 0 1
9 1 1 0.25 35.652359857865754 6.4127039622389335 5.206899322567358 -1 1 0
3 1 1 0.25 39.14537378611043 6.202811639720552 3.24828013375015 -1 1 0
2 1 3 -0.5 40.57386778731402 6.154295419991173 3.163165426638005 -1 1 0
1 1 2 0.25 41.15545335892844 4.9203320376992385 3.4379838047415805 -1 1 0
2522 17 3 -0.5 41.44984000828649 1.2073556246788466 3.345973180153541 -1 0 0
2524 17 1 0.25 42.4253520626675 1.1846038762503444 5.578790787131489 -1 0 0
4105 28 1 0.25 46.24015124267924 4.7514099789808055 1.2454687165191487 -1 0 0
2155 15 1 0.25 46.65985606634435 3.5201099216771903 5.168280573128373 -1 1 1
4107 28 1 0.25 44.196473147077555 3.5058954004900134 1.452383404739705 -1 0 0
4109 28 3 -0.5 45.845978966984816 1.588148332512358 1.3406581727166504 -1 0 0
4106 28 3 -0.5 44.88959350562744 4.554416455378947 0.7957711672516226 -1 0 0
4108 28 1 0.25 44.61691089496477 2.124700321228429 0.9131443818037208 -1 0 0
4104 28 1 0.25 46.65996008499854 6.2336088529215115 1.2275479327904415 -1 0 0
2525 17 3 -0.5 41.35234828405282 1.3945606897270082 6.456609168858282 -1 0 0
2158 15 1 0.25 49.93956235649274 3.740549406030177 3.371116746424172 -1 1 1
2157 15 1 0.25 48.44946500632378 3.970331499474179 3.696099100389193 -1 1 1
2156 15 3 -0.5 48.02019707378836 3.3636816938779717 4.8984497910417275 -1 1 1
2159 15 3 -0.5 50.79369136923454 4.28197929960108 4.396728699248015 -1 1 1
2458 17 1 0.25 51.319597515580796 1.0325578166747518 1.574257472204148 -1 0 0
2160 15 1 0.25 52.134666949093514 3.962617396516177 4.157576212352761 -1 1 1
3988 27 1 0.25 6.158668982610357 7.193183697091376 3.042326189898593 0 0 0
3568 24 1 0.25 3.358415011672542 9.608963784406395 4.564252541860263 0 1 1
3569 24 3 -0.5 2.4253396281830724 10.450235069880167 5.188038102116495 0 1 1
3566 24 3 -0.5 5.4332111799026785 11.000773634337406 4.073644025427634 0 1 1
3567 24 1 0.25 4.775083036156298 10.1218195544562 4.902782813961133 0 1 1
3989 27 3 -0.5 5.31905615022484 8.156563211060272 2.360484616129713 0 0 0
3990 27 1 0.25 6.083671976953638 8.991471712315803 1.5197088079648002 0 0 0
3864 26 1 0.25 1.7678983062994855 11.118658998489545 1.2363850634775564 0 0 -1
3570 24 1 0.25 1.1312645782562762 10.020596761707917 4.822724805556474 0 1 1
540 4 1 0.25 10.102087381687692 6.596715381489799 3.5592411191131745 0 1 0
3134 21 3 -0.5 11.119851064840775 11.206418795437449 0.7587619606669296 0 1 0
539 4 3 -0.5 9.375195363395008 6.885343197658425 2.4236854380991333 0 1 0
4425 30 1 0.25 8.739227484883923 9.922888486197616 6.113529042844063 -1 1 0
538 4 1 0.25 9.994783600873708 7.802219705861598 1.5213644584552481 0 1 0
536 4 3 -0.5 12.055454550085514 6.536875238529844 1.0386030727521938 0 1 0
4426 30 1 0.25 8.53980891307393 11.505939404548815 6.124436070997518 -1 1 0
3132 21 1 0.25 8.857708601534545 11.72106117030999 1.4889158737770358 0 1 0
4424 30 3 -0.5 10.081729981665418 9.501843593840322 6.274334929438274 -1 1 0
3097 21 1 0.25 14.493781386211795 9.049715407228561 2.075923404438022 0 1 0
3099 21 1 0.25 13.507420999070211 9.315687116222259 4.153087400023967 0 1 0
3098 21 3 -0.5 14.705474126701061 9.317490595737075 3.415661395447496 0 1 0
2910 20 1 0.25 17.989583718918393 9.418234799875721 5.570932820061325 0 0 0
3100 21 1 0.25 12.55949609342869 10.556517750884549 4.023980658627605 0 1 0
3096 21 1 0.25 15.809454880238322 8.902269190312007 1.30005705480065 0 1 0
2909 20 3 -0.5 17.377608468987656 10.484405528624421 6.160367533295964 0 0 0
2911 20 1 0.25 17.483532083203198 8.078482165882539 6.2329888724526095 0 0 0
3095 21 3 -0.5 16.37747807273544 7.6066765542054835 1.332660244072382 0 1 0
2908 20 1 0.25 17.298619495794362 11.582963573450993 5.2988577340336205 0 0 0
3101 21 3 -0.5 13.178244014709152 11.714603246681905 4.517046929559624 0 1 0
3726 25 1 0.25 20.775907013697474 6.689753633467228 3.4400286830053406 -1 0 0
4488 30 1 0.25 20.125265675845565 11.108969261882903 3.329130819440067 -1 1 0
4489 30 1 0.25 19.356839597929998 11.361826978723773 2.0130347835424485 -1 1 0
4490 30 3 -0.5 19.52769668231027 10.308829109914697 1.0730054934433857 -1 1 0
3728 25 3 -0.5 23.145122499472592 7.043895308683761 2.716797686989379 -1 0 0
4486 30 1 0.25 22.25389488950739 11.277760999851473 4.472018014789582 -1 1 0
3727 25 1 0.25 22.047893605153043 7.519233728280129 3.518686342567812 -1 0 0
4487 30 3 -0.5 21.548370033825712 11.443405714260757 3.249998282136713 -1 1 0
4485 30 1 0.25 23.676802399488132 11.742479690254976 4.490813876128942 -1 1 0
4692 32 1 0.25 28.54118115457661 7.307404723731414 2.098111979794007 0 1 1
3731 25 3 -0.5 24.475180330258915 8.448082960503791 5.207384485592506 -1 0 0
4691 32 3 -0.5 27.750628999502595 8.4274942566496 2.415544796760978 0 1 1
4690 32 1 0.25 28.633215098333896 9.551709537652677 2.5095878531364066 0 1 1
4689 32 1 0.25 27.982381560780865 10.975756168226832 2.7561198476911186 0 1 1
3730 25 1 0.25 25.10009800881754 7.608052718705087 4.257097850529981 -1 0 0
3729 25 1 0.25 24.38140672459283 7.683958371271238 2.872447384825359 -1 0 0
2743 19 1 0.25 28.946785409460183 9.724194677665434 6.044003070067283 -1 0 1
4687 32 1 0.25 25.88658730871026 10.811892009056372 1.6012862912017747 0 1 1
4688 32 3 -0.5 27.127981860948857 11.506296688707861 1.7305001371267952 0 1 1
3732 25 1 0.25 25.34528169263677 8.426558940060998 6.308505188806238 -1 0 0
2744 19 3 -0.5 29.026260461404277 11.014604499115235 6.489593437543269 -1 0 1
2742 19 1 0.25 30.384111783124546 9.159494419819767 5.947377514456713 -1 0 1
1038 7 1 0.25 33.42279442068032 9.809089167163318 2.8381168753538457 0 0 1
1039 7 1 0.25 32.949601189362824 8.370864917975128 2.5540056053546203 0 0 1
1037 7 3 -0.5 32.344942186248375 10.55750984640784 3.3604448078200675 0 0 1
1040 7 3 -0.5 32.091085727075 8.408912005588485 1.4273216805163957 0 0 1
1036 7 1 0.25 32.700859404603854 11.924303534503304 3.277858237983672 0 0 1
8 1 3 -0.5 35.67068829329106 7.681365424691744 4.60086076291072 -1 1 0
5 1 3 -0.5 38.76365320496299 8.54358906646756 4.105542996545033 -1 1 0
4 1 1 0.25 38.56411168001075 7.6538527241579 2.996661271924957 -1 1 0
6 1 1 0.25 38.076718016801294 8.327052757592183 5.344005566411114 -1 1 0
7 1 1 0.25 36.540175278969464 8.582963171661778 5.325438033685789 -1 1 0
3612 25 1 0.25 38.892948093325685 11.789399912197812 3.5288981413969984 -1 0 0
4096 28 1 0.25 41.18659039801474 10.281367288718043 5.963350721828897 -1 0 0
4103 28 3 -0.5 46.01708114864577 7.064221529532127 2.1305054059901343 -1 0 0
4102 28 1 0.25 46.43468467819467 8.406809425131927 1.975910455107826 -1 0 0
4101 28 1 0.25 46.0745486482977 9.354341480105404 3.1500318722077503 -1 0 0
4100 28 3 -0.5 44.71034962246624 9.638895795692445 3.4742559568871987 -1 0 0
4099 28 1 0.25 43.93018836978575 8.5783322485254 4.034296003241806 -1 0 0
4097 28 3 -0.5 42.529547127917155 9.861256435434557 5.67998924783273 -1 0 0
4098 28 1 0.25 42.55032060440556 8.989391808152746 4.58242220060755 -1 0 0
3858 26 1 0.25 50.331046652301126 7.763890426592251 3.2969260852367563 -1 0 -1
3857 26 3 -0.5 49.0326999988722 7.639012102544051 3.870107510131101 -1 0 -1
3856 26 1 0.25 49.08665794978071 7.254302031815939 5.261471335548797 -1 0 -1
3859 26 1 0.25 50.318276601055075 8.147445566555438 1.7932827537479303 -1 0 -1
3860 26 3 -0.5 51.55225582129539 8.65981257014699 1.4049884609448757 -1 0 -1
3571 24 1 0.25 51.80954311456124 10.663803946748207 5.668204317617297 -1 1 1
3855 26 1 0.25 47.79084526629141 7.39295061829683 6.057915593417108 -1 0 -1
3854 26 3 -0.5 47.37237374701783 8.725992623645485 6.239862267181009 -1 0 -1
4007 27 3 -0.5 47.96709980025574 11.68126369237745 1.5404656528870944 -1 0 0
4009 27 1 0.25 48.68957309349788 12.212120800673475 3.9243426664102463 -1 0 0
4008 27 1 0.25 49.02530698803679 12.153192534617485 2.422908158150828 -1 0 0
3865 26 1 0.25 1.9756834962045067 12.614300639666652 1.6262459980546806 0 0 -1
3565 24 1 0.25 4.949505108881975 12.332095549180558 4.162145565659379 0 1 1
3563 24 3 -0.5 5.375676938650213 12.984615286567752 1.7665146886716827 0 1 1
3562 24 1 0.25 6.008154471740419 14.06064827589893 1.0758584044570947 0 1 1
3564 24 1 0.25 5.611288566418019 13.357816311812833 3.1806688685807094 0 1 1
3121 21 1 0.25 3.6375663406206553 16.324701143918546 2.9340018412585116 0 1 0
3123 21 1 0.25 3.500187378071696 15.813706648666003 5.269034423108644 0 1 0
3122 21 3 -0.5 2.96568028672829 16.447859375443883 4.1815863697007085 0 1 0
3125 21 3 -0.5 5.94959536718762 16.036937947577535 4.90919432540091 0 1 0
3124 21 1 0.25 4.89035019738891 16.32140717849024 5.794367305398135 0 1 0
3120 21 1 0.25 3.434123918083149 17.602078159285114 2.122500013753768 0 1 0
3119 21 3 -0.5 4.089277005902365 17.493519491751517 0.8547304075799429 0 1 0
3131 21 3 -0.5 8.832875711399112 13.095902928863639 1.8279201724113392 0 1 0
3130 21 1 0.25 9.946902323658602 13.595314616921543 2.5112630499356388 0 1 0
3128 21 3 -0.5 8.660502181490772 14.96593075228779 4.092653249166146 0 1 0
3127 21 1 0.25 8.35801537770914 16.269155161310984 4.564321241328511 0 1 0
3129 21 1 0.25 9.663063644262992 14.987984203880451 3.0571671814196693 0 1 0
3126 21 1 0.25 7.130940504114564 16.441066278221555 5.501238973060763 0 1 0
3102 21 1 0.25 12.392604963856781 12.558791538916536 5.307932057496807 0 1 0
2907 20 1 0.25 16.252673000372422 12.614482747099274 5.7665248224477015 0 0 0
3145 21 1 0.25 14.694423493000631 13.315634623320552 1.4699221629648513 0 1 0
3103 21 1 0.25 12.917095018878921 14.070189395795408 5.452103592188671 0 1 0
3104 21 3 -0.5 12.78139053897143 14.901003351534193 4.324358453882433 0 1 0
3105 21 1 0.25 13.331136280444587 16.172141030920123 4.502732126787835 0 1 0
3106 21 1 0.25 13.534844588239649 17.11728093059993 3.269738954463808 0 1 0
980 7 3 -0.5 16.692569137995502 16.146604306841233 3.3580631277412207 0 0 1
979 7 1 0.25 17.05865325885323 16.567773952664012 2.0605353190333244 0 0 1
981 7 1 0.25 17.713292942290888 16.30755241674784 4.412481528451272 0 0 1
3144 21 1 0.25 13.754865025577791 14.378954803476054 0.7757268662019423 0 1 0
3107 21 3 -0.5 12.309190863857518 17.659188999515905 2.7553071903030903 0 1 0
983 7 3 -0.5 19.813543684702807 15.620810445358668 3.280805578371537 0 0 1
982 7 1 0.25 18.93368640747555 15.356737300037047 4.317940176380743 0 0 1
984 7 1 0.25 20.902703702076995 14.751036097465972 3.455722594654304 0 0 1
986 7 3 -0.5 21.160969606511504 14.27607848756537 1.1889130787057747 0 0 1
985 7 1 0.25 21.843312149839537 14.871145143760087 2.2415799236811913 0 0 1
4484 30 3 -0.5 23.801109433067833 13.16758862844613 4.409351504061024 -1 1 0
4483 30 1 0.25 25.100175724132892 13.635158248221249 4.1348804370719945 -1 1 0
4482 30 1 0.25 25.119351080098145 15.163786097719228 4.064234470116852 -1 1 0
4481 30 3 -0.5 24.95710979019444 15.884468311107288 5.29662234908192 -1 1 0
4480 30 1 0.25 26.087721031234935 16.138610291714127 6.101001823553947 -1 1 0
1032 7 1 0.25 28.600514956611693 14.909524555006094 2.628618811136599 0 0 1
1031 7 3 -0.5 29.07643464438025 15.889138264649254 1.7055776330493744 0 0 1
1033 7 1 0.25 29.724217795969277 14.182642270066472 3.509876047786597 0 0 1
2750 19 3 -0.5 29.58299150761358 16.681532434633557 6.008636348880953 -1 0 1
1035 7 1 0.25 31.640559976589277 12.944162112289476 3.7745409470995934 0 0 1
1034 7 3 -0.5 30.572828556120818 13.22698202801227 2.861749219450067 0 0 1
2732 19 3 -0.5 33.95079614492307 15.501088008860325 4.495941959895167 -1 0 1
2731 19 1 0.25 34.69354291127227 15.643701620712346 3.302649016198757 -1 0 1
2733 19 1 0.25 34.857827559282654 15.09621399485324 5.4864178461259145 -1 0 1
2730 19 1 0.25 33.85713420499173 16.019323513140208 2.115914337447918 -1 0 1
2751 19 1 0.25 30.682675797901776 17.461008314762974 5.465161189570209 -1 0 1
2729 19 3 -0.5 33.55775292080311 17.41147822960868 2.042165041163208 -1 0 1
2728 19 1 0.25 32.584930051395524 17.64166011193404 1.0659534309590242 -1 0 1
3611 25 3 -0.5 39.25604552492471 12.704990517822344 4.581963398244031 -1 0 0
3613 25 1 0.25 38.31448583364007 12.326931717074258 2.1676138551348765 -1 0 0
3614 25 3 -0.5 39.091891206875765 12.975425100250348 1.1855134173461293 -1 0 0
3610 25 1 0.25 38.29250863515442 13.687345359925203 4.908816649893208 -1 0 0
3609 25 1 0.25 38.78384988015946 14.465088456212793 6.094677854021503 -1 0 0
1762 12 1 0.25 40.093017991309296 17.47494518022383 4.276308921032942 -2 0 0
415 3 1 0.25 36.614095051325975 17.652766506188563 0.9123323877977434 -1 0 1
3608 25 3 -0.5 37.96504804534447 15.54288916019506 6.458765731525555 -1 0 0
1770 12 1 0.25 44.004238566328624 12.811064698862499 3.7207530170857774 -2 0 0
1771 12 1 0.25 44.59721436361575 12.902938945557263 2.3002049596167473 -2 0 0
3873 26 1 0.25 46.444211184534765 16.223258676505495 3.661374179276834 -1 0 -1
3874 26 1 0.25 46.3983786247079 16.73575534432138 5.1118786891261285 -1 0 -1
1773 12 1 0.25 43.866114900991825 15.01945563107832 1.5271864489154636 -2 0 0
1769 12 3 -0.5 44.01743363950725 14.041973657585784 4.493987509737229 -2 0 0
1768 12 1 0.25 43.43097363179009 13.927611101032952 5.747560375326304 -2 0 0
1772 12 3 -0.5 43.94657690372237 13.645357673929013 1.2872600493337765 -2 0 0
1766 12 3 -0.5 42.499265314375144 16.314641932725348 5.914446475836292 -2 0 0
1767 12 1 0.25 43.29436198516163 15.303872708920608 6.471296714059578 -2 0 0
4010 27 3 -0.5 49.60947785725727 12.770813426208468 4.801714935335126 -1 0 0
3870 26 1 0.25 49.167106672085296 16.068950331689567 1.128218977278227 -1 0 -1
4011 27 1 0.25 49.61868360071479 14.202627326110575 4.842530122171952 -1 0 0
4012 27 1 0.25 50.873102242870395 14.82009873065457 5.534179065957384 -1 0 0
3871 26 1 0.25 47.8125623657057 15.815245056972074 1.7637347556413445 -1 0 -1
3872 26 3 -0.5 47.77478155765481 16.345627986462002 3.0789746642255915 -1 0 -1
3869 26 3 -0.5 50.202150300141355 15.418795437457689 1.8906044521825214 -1 0 -1
3868 26 1 0.25 51.45047919544599 15.634545193879 1.2768820048184126 -1 0 -1
3866 26 3 -0.5 52.561003159674854 13.290549701763723 1.4461025845769722 -1 0 -1
3867 26 1 0.25 52.54418815787859 14.71000266020856 1.7877568545517333 -1 0 -1
3884 26 3 -0.5 2.450338213824889 18.854013668920505 6.193867403491295 0 0 -1
3885 26 1 0.25 3.296079819137253 19.63896113721003 5.345839907680175 0 0 -1
3346 23 1 0.25 6.064702857056215 21.875637965841918 2.7571071787204207 0 0 1
3347 23 3 -0.5 4.747707733130266 21.845266158591397 2.2043470257729285 0 0 1
3886 26 1 0.25 3.188632460626485 21.154818233432984 5.28190947169799 0 0 -1
3883 26 1 0.25 1.1080269393331332 18.681253558727818 5.678450099396598 0 0 -1
3348 23 1 0.25 4.315464365791966 22.97603906687057 1.4988043734250047 0 0 1
3887 26 3 -0.5 3.815077875218823 21.76442150497455 6.403523985301262 0 0 -1
3109 21 1 0.25 11.28655011203965 19.188883352088194 0.9902350305086198 0 1 0
4439 30 3 -0.5 8.479568879342683 20.49470721317521 5.576500882390893 -1 1 0
3345 23 1 0.25 7.262032660557069 21.69742507439349 1.7786359073149964 0 0 1
4438 30 1 0.25 9.545822195246252 21.344818042410516 5.306911301044101 -1 1 0
4437 30 1 0.25 10.799037525987746 20.469516776418143 5.101844783752567 -1 1 0
3344 23 3 -0.5 7.353368895981614 22.73581508639334 0.8061512871614511 0 0 1
4436 30 3 -0.5 11.437060870976476 19.87047672465358 6.218899516166343 -1 1 0
3896 26 3 -0.5 10.43252196982576 23.417994372223326 2.60573702137319 0 0 -1
3897 26 1 0.25 11.807745528583723 23.163280396498823 2.4276588927233647 0 0 -1
4440 30 1 0.25 7.452797031351053 21.19279876157264 6.317353893444294 -1 1 0
3108 21 1 0.25 12.562063786064641 18.681659841894593 1.8227105108759787 0 1 0
978 7 1 0.25 16.902103201261763 18.10163799061865 1.88209301276336 0 0 1
818 6 3 -0.5 15.489176373986762 22.28405981102117 3.942064341236973 -1 0 1
819 6 1 0.25 15.691813678361317 21.003306680859467 4.581282764665793 -1 0 1
817 6 1 0.25 16.58691032270991 22.74176234385054 3.260075952802688 -1 0 1
820 6 1 0.25 16.594931279300898 20.95430329680176 5.8545382117744 -1 0 1
821 6 3 -0.5 17.92681110278641 21.32174297845955 5.585677771827883 -1 0 1
3898 26 1 0.25 12.36006716951898 23.268770483462852 0.937598619104721 0 0 -1
815 6 3 -0.5 15.643976528535063 23.77273564383231 1.2616079645674985 -1 0 1
4467 30 1 0.25 21.063212341587167 18.883304380015495 2.8987240799161693 -1 1 0
4466 30 3 -0.5 21.481564872348407 19.176117017996535 4.217711827112485 -1 1 0
4468 30 1 0.25 22.059140163959732 19.126241782823108 1.735779492926906 -1 1 0
4465 30 1 0.25 22.60175088200222 18.52872111017453 4.757307826638557 -1 1 0
4469 30 3 -0.5 22.36926213705234 20.46142234920526 1.6917128665056391 -1 1 0
4470 30 1 0.25 23.485162853277004 20.807241339728826 0.920203789600877 -1 1 0
4203 29 1 0.25 20.563568995094215 22.98115051030588 1.6497351489938765 0 0 1
4464 30 1 0.25 22.670582199204866 18.615478917356675 6.297453358322342 -1 1 0
824 6 3 -0.5 20.045505154592384 23.419076070576963 6.4927671482569735 -1 0 1
4473 30 1 0.25 23.910245842558083 22.16540261005533 3.7137972228546454 -1 1 0
2753 19 3 -0.5 29.386913965109052 19.290628001216838 4.461848459212545 -1 0 1
2754 19 1 0.25 28.68608995211842 19.623126525551623 3.3134699107981183 -1 0 1
2755 19 1 0.25 28.008717975317012 20.97917750136475 3.6370419289219504 -1 0 1
4472 30 3 -0.5 24.820291025806302 22.132986466670648 2.6424020615906145 -1 1 0
2756 19 3 -0.5 28.95769668489796 22.0182911826085 3.9702165893159034 -1 0 1
4474 30 1 0.25 24.607203539448324 21.953933258352244 5.085902937290715 -1 1 0
4475 30 3 -0.5 25.117846638837648 20.60416958730514 5.281632242032585 -1 1 0
4471 30 1 0.25 24.072014911929287 22.141809342251303 1.413956657298451 -1 1 0
2757 19 1 0.25 28.387436799067924 23.186337323873808 4.431287216379686 -1 0 1
4476 30 1 0.25 25.90810147990621 20.536607674151927 6.4724973481960255 -1 1 0
2752 19 1 0.25 30.288653536833124 18.223547422063053 4.221666771732671 -1 0 1
7641 34 6 0.255 29.896355756560833 20.554361024276343 6.185415867489742 0 0 0
2766 19 1 0.25 34.59537395677209 19.455805507549076 4.5267295012728175 -1 0 1
2727 19 1 0.25 32.17813710570894 19.121425565452178 0.9657603574719893 -1 0 1
2765 19 3 -0.5 33.811832511943244 20.490799372069763 4.98959257611833 -1 0 1
2764 19 1 0.25 33.85430723773368 21.739166737749123 4.27835305063977 -1 0 1
2763 19 1 0.25 33.23503645575675 22.94498513878867 5.063688229311155 -1 0 1
1761 12 1 0.25 40.20275263604644 18.21491898834285 2.9333697362922706 -2 0 0
1763 12 3 -0.5 40.30458123347414 18.274987828141008 5.447953377556423 -2 0 0
414 3 1 0.25 36.232309528023556 19.141481382410298 0.8231365557766244 -1 0 1
2767 19 1 0.25 36.062351849758954 19.443585551341556 5.048327613823005 -1 0 1
2768 19 3 -0.5 36.776362802134216 20.547169148885555 4.503558875807498 -1 0 1
2769 19 1 0.25 38.0952156575442 20.646946004648015 5.047683356480995 -1 0 1
2770 19 1 0.25 39.03374373216007 21.359153676609782 4.0369893520789555 -1 0 1
2771 19 3 -0.5 39.03842817468067 22.807454105730155 4.137018741483432 -1 0 1
413 3 3 -0.5 37.31026716193055 20.043396712251273 1.017392557619375 -1 0 1
2772 19 1 0.25 40.0623190538271 23.420328552133434 3.376139480716314 -1 0 1
1760 12 3 -0.5 41.5435304187998 18.62323831310568 2.6247846310641556 -2 0 0
1764 12 1 0.25 41.66393203563881 18.582246812403053 5.820857768630675 -2 0 0
1759 12 1 0.25 41.69482640317757 19.274028904825666 1.4013172970945316 -2 0 0
3875 26 3 -0.5 46.70220189542573 18.084042218112295 5.2303580383694275 -1 0 -1
1758 12 1 0.25 43.15976533895683 19.625922809687456 1.1044868703490303 -2 0 0
1756 12 1 0.25 44.28240036318913 20.055386579919666 3.1766432206206217 -2 0 0
1754 12 3 -0.5 45.550324798982544 22.02530155194859 3.687463176021411 -2 0 0
1755 12 1 0.25 44.555529812468215 21.199581118098706 4.1993424622412645 -2 0 0
1757 12 3 -0.5 43.72355961441021 20.618758641595132 1.9597363668469954 -2 0 0
2773 19 1 0.25 41.5346141349824 23.18223191865332 3.86737954268761 -1 0 1
1753 12 1 0.25 45.73138344977325 23.2147148977075 4.482144963674107 -2 0 0
1798 12 1 0.25 49.272208709354246 19.347705102678216 3.3227661862558358 -2 0 0
1800 12 2 0.25 51.19542957783096 19.38932177786611 1.7694178601054875 -2 0 0
1796 12 3 -0.5 48.14421722361235 19.24042041140494 1.1868640212486614 -2 0 0
1799 12 3 -0.5 50.591612227568596 19.8572274574691 2.9981132229822185 -2 0 0
1797 12 1 0.25 48.035570863934154 19.741411030036932 2.4794953902479215 -2 0 0
1746 12 1 0.25 52.167441830307794 23.309123431749807 3.5991128828874164 -2 0 0
1747 12 1 0.25 51.169272286025254 23.47817263220422 2.427772056622204 -2 0 0
3890 26 3 -0.5 5.491705350450245 24.198980029049824 5.6722925865308245 0 0 -1
3889 26 1 0.25 4.072067604636118 24.10169432022179 5.582122361780484 0 0 -1
3891 26 1 0.25 6.041299573758804 25.27806987695241 4.955642913808507 0 0 -1
4768 32 1 0.25 2.4642375126529066 28.563984348661993 5.620753214727322 0 0 1
2329 16 1 0.25 2.2307448046198375 27.027900850764997 1.6467803520332045 0 0 1
2331 16 1 0.25 4.514557078094681 26.98607690755223 1.1889887979498477 0 0 1
2330 16 3 -0.5 3.2457023025240868 26.54929115593293 0.8052102002721113 0 0 1
1745 12 3 -0.5 0.8183143394171992 24.52623461706197 4.210723730404503 -1 0 0
2328 16 1 0.25 0.7701280501556482 26.920276597054755 1.2765555680988778 0 0 1
3892 26 1 0.25 7.561294562494619 25.486446918444837 5.200974295510695 0 0 -1
3893 26 3 -0.5 8.541031423735062 24.63443223194794 4.5193644336081595 0 0 -1
3894 26 1 0.25 8.560755122680913 24.897238521987223 3.1253085066441972 0 0 -1
3895 26 1 0.25 10.003317932784526 24.782900373475965 2.579571907419242 0 0 -1
607 5 1 0.25 10.318738861546027 28.225736331975025 5.585082826342971 0 0 0
606 5 1 0.25 11.763500448209856 27.63655568479071 5.516502458406686 0 0 0
605 5 3 -0.5 11.978995724682655 26.67078054058277 4.5069527326354 0 0 0
2338 16 1 0.25 12.02217636137542 28.142892464434897 1.2385275736324766 0 0 1
609 5 1 0.25 8.443678596138813 28.764482048465368 4.241459593431296 0 0 0
610 5 1 0.25 7.990588540036606 29.369136689326837 2.9176500595096564 0 0 0
608 5 3 -0.5 9.857679540396596 28.713669907007183 4.339747634042825 0 0 0
816 6 1 0.25 16.428397525690578 24.02308254661628 2.429150944137378 -1 0 1
603 5 1 0.25 13.944323662794522 25.347187140571414 5.398276568374138 0 0 0
4209 29 1 0.25 16.894007926344525 28.551958093954685 1.6541655126371033 0 0 1
604 5 1 0.25 13.350709266423166 26.38740749110168 4.386756200493552 0 0 0
1722 12 1 0.25 15.688130913915296 29.307895095834365 5.101537517452519 -1 0 0
1721 12 3 -0.5 16.67461243758476 29.372476355555158 6.073241445983386 -1 0 0
2339 16 3 -0.5 12.605344199771235 29.441886097280943 1.2931205172169284 0 0 1
4208 29 3 -0.5 18.033647559138856 27.81461675133179 1.3473227973988882 0 0 1
825 6 1 0.25 19.457499160096244 24.024098973354853 5.351710954725798 -1 0 1
4204 29 1 0.25 20.817925462942583 24.515440410440277 1.753134579034592 0 0 1
826 6 1 0.25 18.905995479455292 25.43378178943717 5.705809071563182 -1 0 1
4205 29 3 -0.5 19.685905289436256 25.220305348187143 2.1025469949011732 0 0 1
4207 29 1 0.25 18.84124157923971 27.53109340318069 2.4980267102586837 0 0 1
828 6 1 0.25 19.41907948075378 27.618694113649497 6.111262553491137 -1 0 1
829 6 1 0.25 20.488077821229652 28.693751122196105 6.075549079664279 -1 0 1
4206 29 1 0.25 20.028949583372302 26.601929987523064 2.2253784900148905 0 0 1
827 6 3 -0.5 19.965288400556737 26.35164160727078 5.80770901788341 -1 0 1
5870 34 5 -0.51 22.72721588670146 24.934572862557463 5.551395276008827 0 0 0
7650 34 6 0.255 22.140754592438956 25.597825202963936 5.2069227228970565 0 0 0
830 6 3 -0.5 20.958282174195514 28.980625871854112 4.7593695789478065 -1 0 1
781 6 1 0.25 25.953543423471032 25.737749000745982 1.0699806661416216 -1 0 1
2758 19 1 0.25 29.250225229764556 24.416917264314197 4.0899456654101245 -1 0 1
780 6 1 0.25 27.339372970363044 25.206762060479992 0.8359401123689629 -1 0 1
1555 11 1 0.25 28.33368775937262 28.486645976610124 3.960945408431728 -1 0 1
1557 11 1 0.25 29.475640741936953 28.213618031688814 5.982763233018571 -1 0 1
1556 11 3 -0.5 29.403986304591058 28.91555584286528 4.755686781667086 -1 0 1
7653 34 6 0.255 25.011651429823118 28.802070562409654 5.909403553881169 0 0 0
2760 19 1 0.25 31.381896541651333 25.299519374990137 4.065675642206871 -1 0 1
2759 19 3 -0.5 30.502085958975645 24.39133633668747 4.726104144773768 -1 0 1
776 6 3 -0.5 31.523405469068773 26.91163612883035 1.2846699100722483 -1 0 1
1559 11 3 -0.5 32.00487823759619 28.31624163585476 5.9576341032037 -1 0 1